                                                                
version 2
run KeinAngriff-0-20201118-16:06:04-81935
attr configname KeinAngriff
attr datetime 20201118-16:06:04
attr experiment KeinAngriff
attr inifile omnetpp.ini
attr iterationvars ""
attr iterationvars2 $repetition=0
attr measurement ""
attr network TuCsNet
attr processid 81935
attr repetition 0
attr replication #0
attr resultdir results
attr runnumber 0
attr seedset 0

vector 481  TuCsNet.switchIrb.ethg$o[0].channel  busy:vector  ETV
attr interpolationmode  sample-hold
attr source  channelBusy
vector 483  TuCsNet.switchIrb.ethg$o[1].channel  busy:vector  ETV
attr interpolationmode  sample-hold
attr source  channelBusy
vector 485  TuCsNet.switchIrb.ethg$o[2].channel  busy:vector  ETV
attr interpolationmode  sample-hold
attr source  channelBusy
vector 487  TuCsNet.switchIrb.ethg$o[3].channel  busy:vector  ETV
attr interpolationmode  sample-hold
attr source  channelBusy
vector 489  TuCsNet.switchIrb.ethg$o[4].channel  busy:vector  ETV
attr interpolationmode  sample-hold
attr source  channelBusy
vector 491  TuCsNet.switchIrb.ethg$o[5].channel  busy:vector  ETV
attr interpolationmode  sample-hold
attr source  channelBusy
vector 493  TuCsNet.switchIrb.ethg$o[6].channel  busy:vector  ETV
attr interpolationmode  sample-hold
attr source  channelBusy
vector 495  TuCsNet.switchIrb.ethg$o[7].channel  busy:vector  ETV
attr interpolationmode  sample-hold
attr source  channelBusy
vector 497  TuCsNet.switchIrb.ethg$o[8].channel  busy:vector  ETV
attr interpolationmode  sample-hold
attr source  channelBusy
vector 499  TuCsNet.switchIrb.ethg$o[9].channel  busy:vector  ETV
attr interpolationmode  sample-hold
attr source  channelBusy
vector 600  TuCsNet.switchIrb.ethg$o[10].channel  busy:vector  ETV
attr interpolationmode  sample-hold
attr source  channelBusy
vector 480  TuCsNet.irbServer[0].ethg$o[0].channel  busy:vector  ETV
attr interpolationmode  sample-hold
attr source  channelBusy
vector 482  TuCsNet.irbServer[1].ethg$o[0].channel  busy:vector  ETV
attr interpolationmode  sample-hold
attr source  channelBusy
vector 484  TuCsNet.irbServer[2].ethg$o[0].channel  busy:vector  ETV
attr interpolationmode  sample-hold
attr source  channelBusy
vector 486  TuCsNet.irbServer[3].ethg$o[0].channel  busy:vector  ETV
attr interpolationmode  sample-hold
attr source  channelBusy
vector 488  TuCsNet.irbServer[4].ethg$o[0].channel  busy:vector  ETV
attr interpolationmode  sample-hold
attr source  channelBusy
vector 490  TuCsNet.irbServer[5].ethg$o[0].channel  busy:vector  ETV
attr interpolationmode  sample-hold
attr source  channelBusy
vector 492  TuCsNet.irbServer[6].ethg$o[0].channel  busy:vector  ETV
attr interpolationmode  sample-hold
attr source  channelBusy
vector 494  TuCsNet.irbServer[7].ethg$o[0].channel  busy:vector  ETV
attr interpolationmode  sample-hold
attr source  channelBusy
vector 496  TuCsNet.irbServer[8].ethg$o[0].channel  busy:vector  ETV
attr interpolationmode  sample-hold
attr source  channelBusy
vector 498  TuCsNet.irbServer[9].ethg$o[0].channel  busy:vector  ETV
attr interpolationmode  sample-hold
attr source  channelBusy
vector 500  TuCsNet.switchStudent.ethg$o[0].channel  busy:vector  ETV
attr interpolationmode  sample-hold
attr source  channelBusy
vector 501  TuCsNet.switchStudent.ethg$o[1].channel  busy:vector  ETV
attr interpolationmode  sample-hold
attr source  channelBusy
vector 502  TuCsNet.switchStudent.ethg$o[2].channel  busy:vector  ETV
attr interpolationmode  sample-hold
attr source  channelBusy
vector 503  TuCsNet.switchStudent.ethg$o[3].channel  busy:vector  ETV
attr interpolationmode  sample-hold
attr source  channelBusy
vector 504  TuCsNet.switchStudent.ethg$o[4].channel  busy:vector  ETV
attr interpolationmode  sample-hold
attr source  channelBusy
vector 505  TuCsNet.switchStudent.ethg$o[5].channel  busy:vector  ETV
attr interpolationmode  sample-hold
attr source  channelBusy
vector 506  TuCsNet.switchStudent.ethg$o[6].channel  busy:vector  ETV
attr interpolationmode  sample-hold
attr source  channelBusy
vector 507  TuCsNet.switchStudent.ethg$o[7].channel  busy:vector  ETV
attr interpolationmode  sample-hold
attr source  channelBusy
vector 508  TuCsNet.switchStudent.ethg$o[8].channel  busy:vector  ETV
attr interpolationmode  sample-hold
attr source  channelBusy
vector 509  TuCsNet.switchStudent.ethg$o[9].channel  busy:vector  ETV
attr interpolationmode  sample-hold
attr source  channelBusy
vector 510  TuCsNet.switchStudent.ethg$o[10].channel  busy:vector  ETV
attr interpolationmode  sample-hold
attr source  channelBusy
vector 511  TuCsNet.switchStudent.ethg$o[11].channel  busy:vector  ETV
attr interpolationmode  sample-hold
attr source  channelBusy
vector 512  TuCsNet.switchStudent.ethg$o[12].channel  busy:vector  ETV
attr interpolationmode  sample-hold
attr source  channelBusy
vector 513  TuCsNet.switchStudent.ethg$o[13].channel  busy:vector  ETV
attr interpolationmode  sample-hold
attr source  channelBusy
vector 514  TuCsNet.switchStudent.ethg$o[14].channel  busy:vector  ETV
attr interpolationmode  sample-hold
attr source  channelBusy
vector 515  TuCsNet.switchStudent.ethg$o[15].channel  busy:vector  ETV
attr interpolationmode  sample-hold
attr source  channelBusy
vector 516  TuCsNet.switchStudent.ethg$o[16].channel  busy:vector  ETV
attr interpolationmode  sample-hold
attr source  channelBusy
vector 517  TuCsNet.switchStudent.ethg$o[17].channel  busy:vector  ETV
attr interpolationmode  sample-hold
attr source  channelBusy
vector 518  TuCsNet.switchStudent.ethg$o[18].channel  busy:vector  ETV
attr interpolationmode  sample-hold
attr source  channelBusy
vector 519  TuCsNet.switchStudent.ethg$o[19].channel  busy:vector  ETV
attr interpolationmode  sample-hold
attr source  channelBusy
vector 520  TuCsNet.switchStudent.ethg$o[20].channel  busy:vector  ETV
attr interpolationmode  sample-hold
attr source  channelBusy
vector 521  TuCsNet.switchStudent.ethg$o[21].channel  busy:vector  ETV
attr interpolationmode  sample-hold
attr source  channelBusy
vector 522  TuCsNet.switchStudent.ethg$o[22].channel  busy:vector  ETV
attr interpolationmode  sample-hold
attr source  channelBusy
vector 523  TuCsNet.switchStudent.ethg$o[23].channel  busy:vector  ETV
attr interpolationmode  sample-hold
attr source  channelBusy
vector 524  TuCsNet.switchStudent.ethg$o[24].channel  busy:vector  ETV
attr interpolationmode  sample-hold
attr source  channelBusy
vector 525  TuCsNet.switchStudent.ethg$o[25].channel  busy:vector  ETV
attr interpolationmode  sample-hold
attr source  channelBusy
vector 526  TuCsNet.switchStudent.ethg$o[26].channel  busy:vector  ETV
attr interpolationmode  sample-hold
attr source  channelBusy
vector 527  TuCsNet.switchStudent.ethg$o[27].channel  busy:vector  ETV
attr interpolationmode  sample-hold
attr source  channelBusy
vector 528  TuCsNet.switchStudent.ethg$o[28].channel  busy:vector  ETV
attr interpolationmode  sample-hold
attr source  channelBusy
vector 529  TuCsNet.switchStudent.ethg$o[29].channel  busy:vector  ETV
attr interpolationmode  sample-hold
attr source  channelBusy
vector 530  TuCsNet.switchStudent.ethg$o[30].channel  busy:vector  ETV
attr interpolationmode  sample-hold
attr source  channelBusy
vector 531  TuCsNet.switchStudent.ethg$o[31].channel  busy:vector  ETV
attr interpolationmode  sample-hold
attr source  channelBusy
vector 532  TuCsNet.switchStudent.ethg$o[32].channel  busy:vector  ETV
attr interpolationmode  sample-hold
attr source  channelBusy
vector 533  TuCsNet.switchStudent.ethg$o[33].channel  busy:vector  ETV
attr interpolationmode  sample-hold
attr source  channelBusy
vector 534  TuCsNet.switchStudent.ethg$o[34].channel  busy:vector  ETV
attr interpolationmode  sample-hold
attr source  channelBusy
vector 535  TuCsNet.switchStudent.ethg$o[35].channel  busy:vector  ETV
attr interpolationmode  sample-hold
attr source  channelBusy
vector 536  TuCsNet.switchStudent.ethg$o[36].channel  busy:vector  ETV
attr interpolationmode  sample-hold
attr source  channelBusy
vector 537  TuCsNet.switchStudent.ethg$o[37].channel  busy:vector  ETV
attr interpolationmode  sample-hold
attr source  channelBusy
vector 538  TuCsNet.switchStudent.ethg$o[38].channel  busy:vector  ETV
attr interpolationmode  sample-hold
attr source  channelBusy
vector 539  TuCsNet.switchStudent.ethg$o[39].channel  busy:vector  ETV
attr interpolationmode  sample-hold
attr source  channelBusy
vector 540  TuCsNet.switchStudent.ethg$o[40].channel  busy:vector  ETV
attr interpolationmode  sample-hold
attr source  channelBusy
vector 541  TuCsNet.switchStudent.ethg$o[41].channel  busy:vector  ETV
attr interpolationmode  sample-hold
attr source  channelBusy
vector 542  TuCsNet.switchStudent.ethg$o[42].channel  busy:vector  ETV
attr interpolationmode  sample-hold
attr source  channelBusy
vector 543  TuCsNet.switchStudent.ethg$o[43].channel  busy:vector  ETV
attr interpolationmode  sample-hold
attr source  channelBusy
vector 544  TuCsNet.switchStudent.ethg$o[44].channel  busy:vector  ETV
attr interpolationmode  sample-hold
attr source  channelBusy
vector 545  TuCsNet.switchStudent.ethg$o[45].channel  busy:vector  ETV
attr interpolationmode  sample-hold
attr source  channelBusy
vector 546  TuCsNet.switchStudent.ethg$o[46].channel  busy:vector  ETV
attr interpolationmode  sample-hold
attr source  channelBusy
vector 547  TuCsNet.switchStudent.ethg$o[47].channel  busy:vector  ETV
attr interpolationmode  sample-hold
attr source  channelBusy
vector 548  TuCsNet.switchStudent.ethg$o[48].channel  busy:vector  ETV
attr interpolationmode  sample-hold
attr source  channelBusy
vector 549  TuCsNet.switchStudent.ethg$o[49].channel  busy:vector  ETV
attr interpolationmode  sample-hold
attr source  channelBusy
vector 550  TuCsNet.switchStudent.ethg$o[50].channel  busy:vector  ETV
attr interpolationmode  sample-hold
attr source  channelBusy
vector 551  TuCsNet.switchStudent.ethg$o[51].channel  busy:vector  ETV
attr interpolationmode  sample-hold
attr source  channelBusy
vector 552  TuCsNet.switchStudent.ethg$o[52].channel  busy:vector  ETV
attr interpolationmode  sample-hold
attr source  channelBusy
vector 553  TuCsNet.switchStudent.ethg$o[53].channel  busy:vector  ETV
attr interpolationmode  sample-hold
attr source  channelBusy
vector 554  TuCsNet.switchStudent.ethg$o[54].channel  busy:vector  ETV
attr interpolationmode  sample-hold
attr source  channelBusy
vector 555  TuCsNet.switchStudent.ethg$o[55].channel  busy:vector  ETV
attr interpolationmode  sample-hold
attr source  channelBusy
vector 556  TuCsNet.switchStudent.ethg$o[56].channel  busy:vector  ETV
attr interpolationmode  sample-hold
attr source  channelBusy
vector 557  TuCsNet.switchStudent.ethg$o[57].channel  busy:vector  ETV
attr interpolationmode  sample-hold
attr source  channelBusy
vector 558  TuCsNet.switchStudent.ethg$o[58].channel  busy:vector  ETV
attr interpolationmode  sample-hold
attr source  channelBusy
vector 559  TuCsNet.switchStudent.ethg$o[59].channel  busy:vector  ETV
attr interpolationmode  sample-hold
attr source  channelBusy
vector 560  TuCsNet.switchStudent.ethg$o[60].channel  busy:vector  ETV
attr interpolationmode  sample-hold
attr source  channelBusy
vector 561  TuCsNet.switchStudent.ethg$o[61].channel  busy:vector  ETV
attr interpolationmode  sample-hold
attr source  channelBusy
vector 562  TuCsNet.switchStudent.ethg$o[62].channel  busy:vector  ETV
attr interpolationmode  sample-hold
attr source  channelBusy
vector 563  TuCsNet.switchStudent.ethg$o[63].channel  busy:vector  ETV
attr interpolationmode  sample-hold
attr source  channelBusy
vector 564  TuCsNet.switchStudent.ethg$o[64].channel  busy:vector  ETV
attr interpolationmode  sample-hold
attr source  channelBusy
vector 565  TuCsNet.switchStudent.ethg$o[65].channel  busy:vector  ETV
attr interpolationmode  sample-hold
attr source  channelBusy
vector 566  TuCsNet.switchStudent.ethg$o[66].channel  busy:vector  ETV
attr interpolationmode  sample-hold
attr source  channelBusy
vector 567  TuCsNet.switchStudent.ethg$o[67].channel  busy:vector  ETV
attr interpolationmode  sample-hold
attr source  channelBusy
vector 568  TuCsNet.switchStudent.ethg$o[68].channel  busy:vector  ETV
attr interpolationmode  sample-hold
attr source  channelBusy
vector 569  TuCsNet.switchStudent.ethg$o[69].channel  busy:vector  ETV
attr interpolationmode  sample-hold
attr source  channelBusy
vector 570  TuCsNet.switchStudent.ethg$o[70].channel  busy:vector  ETV
attr interpolationmode  sample-hold
attr source  channelBusy
vector 571  TuCsNet.switchStudent.ethg$o[71].channel  busy:vector  ETV
attr interpolationmode  sample-hold
attr source  channelBusy
vector 572  TuCsNet.switchStudent.ethg$o[72].channel  busy:vector  ETV
attr interpolationmode  sample-hold
attr source  channelBusy
vector 573  TuCsNet.switchStudent.ethg$o[73].channel  busy:vector  ETV
attr interpolationmode  sample-hold
attr source  channelBusy
vector 574  TuCsNet.switchStudent.ethg$o[74].channel  busy:vector  ETV
attr interpolationmode  sample-hold
attr source  channelBusy
vector 575  TuCsNet.switchStudent.ethg$o[75].channel  busy:vector  ETV
attr interpolationmode  sample-hold
attr source  channelBusy
vector 576  TuCsNet.switchStudent.ethg$o[76].channel  busy:vector  ETV
attr interpolationmode  sample-hold
attr source  channelBusy
vector 577  TuCsNet.switchStudent.ethg$o[77].channel  busy:vector  ETV
attr interpolationmode  sample-hold
attr source  channelBusy
vector 578  TuCsNet.switchStudent.ethg$o[78].channel  busy:vector  ETV
attr interpolationmode  sample-hold
attr source  channelBusy
vector 579  TuCsNet.switchStudent.ethg$o[79].channel  busy:vector  ETV
attr interpolationmode  sample-hold
attr source  channelBusy
vector 580  TuCsNet.switchStudent.ethg$o[80].channel  busy:vector  ETV
attr interpolationmode  sample-hold
attr source  channelBusy
vector 581  TuCsNet.switchStudent.ethg$o[81].channel  busy:vector  ETV
attr interpolationmode  sample-hold
attr source  channelBusy
vector 582  TuCsNet.switchStudent.ethg$o[82].channel  busy:vector  ETV
attr interpolationmode  sample-hold
attr source  channelBusy
vector 583  TuCsNet.switchStudent.ethg$o[83].channel  busy:vector  ETV
attr interpolationmode  sample-hold
attr source  channelBusy
vector 584  TuCsNet.switchStudent.ethg$o[84].channel  busy:vector  ETV
attr interpolationmode  sample-hold
attr source  channelBusy
vector 585  TuCsNet.switchStudent.ethg$o[85].channel  busy:vector  ETV
attr interpolationmode  sample-hold
attr source  channelBusy
vector 586  TuCsNet.switchStudent.ethg$o[86].channel  busy:vector  ETV
attr interpolationmode  sample-hold
attr source  channelBusy
vector 587  TuCsNet.switchStudent.ethg$o[87].channel  busy:vector  ETV
attr interpolationmode  sample-hold
attr source  channelBusy
vector 588  TuCsNet.switchStudent.ethg$o[88].channel  busy:vector  ETV
attr interpolationmode  sample-hold
attr source  channelBusy
vector 589  TuCsNet.switchStudent.ethg$o[89].channel  busy:vector  ETV
attr interpolationmode  sample-hold
attr source  channelBusy
vector 590  TuCsNet.switchStudent.ethg$o[90].channel  busy:vector  ETV
attr interpolationmode  sample-hold
attr source  channelBusy
vector 591  TuCsNet.switchStudent.ethg$o[91].channel  busy:vector  ETV
attr interpolationmode  sample-hold
attr source  channelBusy
vector 592  TuCsNet.switchStudent.ethg$o[92].channel  busy:vector  ETV
attr interpolationmode  sample-hold
attr source  channelBusy
vector 593  TuCsNet.switchStudent.ethg$o[93].channel  busy:vector  ETV
attr interpolationmode  sample-hold
attr source  channelBusy
vector 594  TuCsNet.switchStudent.ethg$o[94].channel  busy:vector  ETV
attr interpolationmode  sample-hold
attr source  channelBusy
vector 595  TuCsNet.switchStudent.ethg$o[95].channel  busy:vector  ETV
attr interpolationmode  sample-hold
attr source  channelBusy
vector 596  TuCsNet.switchStudent.ethg$o[96].channel  busy:vector  ETV
attr interpolationmode  sample-hold
attr source  channelBusy
vector 597  TuCsNet.switchStudent.ethg$o[97].channel  busy:vector  ETV
attr interpolationmode  sample-hold
attr source  channelBusy
vector 598  TuCsNet.switchStudent.ethg$o[98].channel  busy:vector  ETV
attr interpolationmode  sample-hold
attr source  channelBusy
vector 599  TuCsNet.switchStudent.ethg$o[99].channel  busy:vector  ETV
attr interpolationmode  sample-hold
attr source  channelBusy
vector 602  TuCsNet.switchStudent.ethg$o[100].channel  busy:vector  ETV
attr interpolationmode  sample-hold
attr source  channelBusy
vector 0  TuCsNet.switchLs1.ethg$o[0].channel  busy:vector  ETV
attr interpolationmode  sample-hold
attr source  channelBusy
vector 1  TuCsNet.switchLs1.ethg$o[1].channel  busy:vector  ETV
attr interpolationmode  sample-hold
attr source  channelBusy
vector 2  TuCsNet.switchLs1.ethg$o[2].channel  busy:vector  ETV
attr interpolationmode  sample-hold
attr source  channelBusy
vector 3  TuCsNet.switchLs1.ethg$o[3].channel  busy:vector  ETV
attr interpolationmode  sample-hold
attr source  channelBusy
vector 4  TuCsNet.switchLs1.ethg$o[4].channel  busy:vector  ETV
attr interpolationmode  sample-hold
attr source  channelBusy
vector 5  TuCsNet.switchLs1.ethg$o[5].channel  busy:vector  ETV
attr interpolationmode  sample-hold
attr source  channelBusy
vector 6  TuCsNet.switchLs1.ethg$o[6].channel  busy:vector  ETV
attr interpolationmode  sample-hold
attr source  channelBusy
vector 7  TuCsNet.switchLs1.ethg$o[7].channel  busy:vector  ETV
attr interpolationmode  sample-hold
attr source  channelBusy
vector 8  TuCsNet.switchLs1.ethg$o[8].channel  busy:vector  ETV
attr interpolationmode  sample-hold
attr source  channelBusy
vector 9  TuCsNet.switchLs1.ethg$o[9].channel  busy:vector  ETV
attr interpolationmode  sample-hold
attr source  channelBusy
vector 10  TuCsNet.switchLs1.ethg$o[10].channel  busy:vector  ETV
attr interpolationmode  sample-hold
attr source  channelBusy
vector 11  TuCsNet.switchLs1.ethg$o[11].channel  busy:vector  ETV
attr interpolationmode  sample-hold
attr source  channelBusy
vector 12  TuCsNet.switchLs1.ethg$o[12].channel  busy:vector  ETV
attr interpolationmode  sample-hold
attr source  channelBusy
vector 13  TuCsNet.switchLs1.ethg$o[13].channel  busy:vector  ETV
attr interpolationmode  sample-hold
attr source  channelBusy
vector 14  TuCsNet.switchLs1.ethg$o[14].channel  busy:vector  ETV
attr interpolationmode  sample-hold
attr source  channelBusy
vector 15  TuCsNet.switchLs1.ethg$o[15].channel  busy:vector  ETV
attr interpolationmode  sample-hold
attr source  channelBusy
vector 16  TuCsNet.switchLs1.ethg$o[16].channel  busy:vector  ETV
attr interpolationmode  sample-hold
attr source  channelBusy
vector 17  TuCsNet.switchLs1.ethg$o[17].channel  busy:vector  ETV
attr interpolationmode  sample-hold
attr source  channelBusy
vector 18  TuCsNet.switchLs1.ethg$o[18].channel  busy:vector  ETV
attr interpolationmode  sample-hold
attr source  channelBusy
vector 19  TuCsNet.switchLs1.ethg$o[19].channel  busy:vector  ETV
attr interpolationmode  sample-hold
attr source  channelBusy
vector 20  TuCsNet.switchLs1.ethg$o[20].channel  busy:vector  ETV
attr interpolationmode  sample-hold
attr source  channelBusy
vector 21  TuCsNet.switchLs1.ethg$o[21].channel  busy:vector  ETV
attr interpolationmode  sample-hold
attr source  channelBusy
vector 22  TuCsNet.switchLs1.ethg$o[22].channel  busy:vector  ETV
attr interpolationmode  sample-hold
attr source  channelBusy
vector 23  TuCsNet.switchLs1.ethg$o[23].channel  busy:vector  ETV
attr interpolationmode  sample-hold
attr source  channelBusy
vector 24  TuCsNet.switchLs1.ethg$o[24].channel  busy:vector  ETV
attr interpolationmode  sample-hold
attr source  channelBusy
vector 25  TuCsNet.switchLs1.ethg$o[25].channel  busy:vector  ETV
attr interpolationmode  sample-hold
attr source  channelBusy
vector 26  TuCsNet.switchLs1.ethg$o[26].channel  busy:vector  ETV
attr interpolationmode  sample-hold
attr source  channelBusy
vector 27  TuCsNet.switchLs1.ethg$o[27].channel  busy:vector  ETV
attr interpolationmode  sample-hold
attr source  channelBusy
vector 28  TuCsNet.switchLs1.ethg$o[28].channel  busy:vector  ETV
attr interpolationmode  sample-hold
attr source  channelBusy
vector 29  TuCsNet.switchLs1.ethg$o[29].channel  busy:vector  ETV
attr interpolationmode  sample-hold
attr source  channelBusy
vector 30  TuCsNet.switchLs1.ethg$o[30].channel  busy:vector  ETV
attr interpolationmode  sample-hold
attr source  channelBusy
vector 31  TuCsNet.switchLs1.ethg$o[31].channel  busy:vector  ETV
attr interpolationmode  sample-hold
attr source  channelBusy
vector 32  TuCsNet.switchLs1.ethg$o[32].channel  busy:vector  ETV
attr interpolationmode  sample-hold
attr source  channelBusy
vector 33  TuCsNet.switchLs1.ethg$o[33].channel  busy:vector  ETV
attr interpolationmode  sample-hold
attr source  channelBusy
vector 34  TuCsNet.switchLs1.ethg$o[34].channel  busy:vector  ETV
attr interpolationmode  sample-hold
attr source  channelBusy
vector 35  TuCsNet.switchLs1.ethg$o[35].channel  busy:vector  ETV
attr interpolationmode  sample-hold
attr source  channelBusy
vector 36  TuCsNet.switchLs1.ethg$o[36].channel  busy:vector  ETV
attr interpolationmode  sample-hold
attr source  channelBusy
vector 37  TuCsNet.switchLs1.ethg$o[37].channel  busy:vector  ETV
attr interpolationmode  sample-hold
attr source  channelBusy
vector 38  TuCsNet.switchLs1.ethg$o[38].channel  busy:vector  ETV
attr interpolationmode  sample-hold
attr source  channelBusy
vector 39  TuCsNet.switchLs1.ethg$o[39].channel  busy:vector  ETV
attr interpolationmode  sample-hold
attr source  channelBusy
vector 604  TuCsNet.switchLs1.ethg$o[40].channel  busy:vector  ETV
attr interpolationmode  sample-hold
attr source  channelBusy
vector 40  TuCsNet.switchLs2.ethg$o[0].channel  busy:vector  ETV
attr interpolationmode  sample-hold
attr source  channelBusy
vector 41  TuCsNet.switchLs2.ethg$o[1].channel  busy:vector  ETV
attr interpolationmode  sample-hold
attr source  channelBusy
vector 42  TuCsNet.switchLs2.ethg$o[2].channel  busy:vector  ETV
attr interpolationmode  sample-hold
attr source  channelBusy
vector 43  TuCsNet.switchLs2.ethg$o[3].channel  busy:vector  ETV
attr interpolationmode  sample-hold
attr source  channelBusy
vector 44  TuCsNet.switchLs2.ethg$o[4].channel  busy:vector  ETV
attr interpolationmode  sample-hold
attr source  channelBusy
vector 45  TuCsNet.switchLs2.ethg$o[5].channel  busy:vector  ETV
attr interpolationmode  sample-hold
attr source  channelBusy
vector 46  TuCsNet.switchLs2.ethg$o[6].channel  busy:vector  ETV
attr interpolationmode  sample-hold
attr source  channelBusy
vector 47  TuCsNet.switchLs2.ethg$o[7].channel  busy:vector  ETV
attr interpolationmode  sample-hold
attr source  channelBusy
vector 48  TuCsNet.switchLs2.ethg$o[8].channel  busy:vector  ETV
attr interpolationmode  sample-hold
attr source  channelBusy
vector 49  TuCsNet.switchLs2.ethg$o[9].channel  busy:vector  ETV
attr interpolationmode  sample-hold
attr source  channelBusy
vector 50  TuCsNet.switchLs2.ethg$o[10].channel  busy:vector  ETV
attr interpolationmode  sample-hold
attr source  channelBusy
vector 51  TuCsNet.switchLs2.ethg$o[11].channel  busy:vector  ETV
attr interpolationmode  sample-hold
attr source  channelBusy
vector 52  TuCsNet.switchLs2.ethg$o[12].channel  busy:vector  ETV
attr interpolationmode  sample-hold
attr source  channelBusy
vector 53  TuCsNet.switchLs2.ethg$o[13].channel  busy:vector  ETV
attr interpolationmode  sample-hold
attr source  channelBusy
vector 54  TuCsNet.switchLs2.ethg$o[14].channel  busy:vector  ETV
attr interpolationmode  sample-hold
attr source  channelBusy
vector 55  TuCsNet.switchLs2.ethg$o[15].channel  busy:vector  ETV
attr interpolationmode  sample-hold
attr source  channelBusy
vector 56  TuCsNet.switchLs2.ethg$o[16].channel  busy:vector  ETV
attr interpolationmode  sample-hold
attr source  channelBusy
vector 57  TuCsNet.switchLs2.ethg$o[17].channel  busy:vector  ETV
attr interpolationmode  sample-hold
attr source  channelBusy
vector 58  TuCsNet.switchLs2.ethg$o[18].channel  busy:vector  ETV
attr interpolationmode  sample-hold
attr source  channelBusy
vector 59  TuCsNet.switchLs2.ethg$o[19].channel  busy:vector  ETV
attr interpolationmode  sample-hold
attr source  channelBusy
vector 60  TuCsNet.switchLs2.ethg$o[20].channel  busy:vector  ETV
attr interpolationmode  sample-hold
attr source  channelBusy
vector 61  TuCsNet.switchLs2.ethg$o[21].channel  busy:vector  ETV
attr interpolationmode  sample-hold
attr source  channelBusy
vector 62  TuCsNet.switchLs2.ethg$o[22].channel  busy:vector  ETV
attr interpolationmode  sample-hold
attr source  channelBusy
vector 63  TuCsNet.switchLs2.ethg$o[23].channel  busy:vector  ETV
attr interpolationmode  sample-hold
attr source  channelBusy
vector 64  TuCsNet.switchLs2.ethg$o[24].channel  busy:vector  ETV
attr interpolationmode  sample-hold
attr source  channelBusy
vector 65  TuCsNet.switchLs2.ethg$o[25].channel  busy:vector  ETV
attr interpolationmode  sample-hold
attr source  channelBusy
vector 66  TuCsNet.switchLs2.ethg$o[26].channel  busy:vector  ETV
attr interpolationmode  sample-hold
attr source  channelBusy
vector 67  TuCsNet.switchLs2.ethg$o[27].channel  busy:vector  ETV
attr interpolationmode  sample-hold
attr source  channelBusy
vector 68  TuCsNet.switchLs2.ethg$o[28].channel  busy:vector  ETV
attr interpolationmode  sample-hold
attr source  channelBusy
vector 69  TuCsNet.switchLs2.ethg$o[29].channel  busy:vector  ETV
attr interpolationmode  sample-hold
attr source  channelBusy
vector 70  TuCsNet.switchLs2.ethg$o[30].channel  busy:vector  ETV
attr interpolationmode  sample-hold
attr source  channelBusy
vector 71  TuCsNet.switchLs2.ethg$o[31].channel  busy:vector  ETV
attr interpolationmode  sample-hold
attr source  channelBusy
vector 72  TuCsNet.switchLs2.ethg$o[32].channel  busy:vector  ETV
attr interpolationmode  sample-hold
attr source  channelBusy
vector 73  TuCsNet.switchLs2.ethg$o[33].channel  busy:vector  ETV
attr interpolationmode  sample-hold
attr source  channelBusy
vector 74  TuCsNet.switchLs2.ethg$o[34].channel  busy:vector  ETV
attr interpolationmode  sample-hold
attr source  channelBusy
vector 75  TuCsNet.switchLs2.ethg$o[35].channel  busy:vector  ETV
attr interpolationmode  sample-hold
attr source  channelBusy
vector 76  TuCsNet.switchLs2.ethg$o[36].channel  busy:vector  ETV
attr interpolationmode  sample-hold
attr source  channelBusy
vector 77  TuCsNet.switchLs2.ethg$o[37].channel  busy:vector  ETV
attr interpolationmode  sample-hold
attr source  channelBusy
vector 78  TuCsNet.switchLs2.ethg$o[38].channel  busy:vector  ETV
attr interpolationmode  sample-hold
attr source  channelBusy
vector 79  TuCsNet.switchLs2.ethg$o[39].channel  busy:vector  ETV
attr interpolationmode  sample-hold
attr source  channelBusy
vector 606  TuCsNet.switchLs2.ethg$o[40].channel  busy:vector  ETV
attr interpolationmode  sample-hold
attr source  channelBusy
vector 80  TuCsNet.switchLs4.ethg$o[0].channel  busy:vector  ETV
attr interpolationmode  sample-hold
attr source  channelBusy
vector 81  TuCsNet.switchLs4.ethg$o[1].channel  busy:vector  ETV
attr interpolationmode  sample-hold
attr source  channelBusy
vector 82  TuCsNet.switchLs4.ethg$o[2].channel  busy:vector  ETV
attr interpolationmode  sample-hold
attr source  channelBusy
vector 83  TuCsNet.switchLs4.ethg$o[3].channel  busy:vector  ETV
attr interpolationmode  sample-hold
attr source  channelBusy
vector 84  TuCsNet.switchLs4.ethg$o[4].channel  busy:vector  ETV
attr interpolationmode  sample-hold
attr source  channelBusy
vector 85  TuCsNet.switchLs4.ethg$o[5].channel  busy:vector  ETV
attr interpolationmode  sample-hold
attr source  channelBusy
vector 86  TuCsNet.switchLs4.ethg$o[6].channel  busy:vector  ETV
attr interpolationmode  sample-hold
attr source  channelBusy
vector 87  TuCsNet.switchLs4.ethg$o[7].channel  busy:vector  ETV
attr interpolationmode  sample-hold
attr source  channelBusy
vector 88  TuCsNet.switchLs4.ethg$o[8].channel  busy:vector  ETV
attr interpolationmode  sample-hold
attr source  channelBusy
vector 89  TuCsNet.switchLs4.ethg$o[9].channel  busy:vector  ETV
attr interpolationmode  sample-hold
attr source  channelBusy
vector 90  TuCsNet.switchLs4.ethg$o[10].channel  busy:vector  ETV
attr interpolationmode  sample-hold
attr source  channelBusy
vector 91  TuCsNet.switchLs4.ethg$o[11].channel  busy:vector  ETV
attr interpolationmode  sample-hold
attr source  channelBusy
vector 92  TuCsNet.switchLs4.ethg$o[12].channel  busy:vector  ETV
attr interpolationmode  sample-hold
attr source  channelBusy
vector 93  TuCsNet.switchLs4.ethg$o[13].channel  busy:vector  ETV
attr interpolationmode  sample-hold
attr source  channelBusy
vector 94  TuCsNet.switchLs4.ethg$o[14].channel  busy:vector  ETV
attr interpolationmode  sample-hold
attr source  channelBusy
vector 95  TuCsNet.switchLs4.ethg$o[15].channel  busy:vector  ETV
attr interpolationmode  sample-hold
attr source  channelBusy
vector 96  TuCsNet.switchLs4.ethg$o[16].channel  busy:vector  ETV
attr interpolationmode  sample-hold
attr source  channelBusy
vector 97  TuCsNet.switchLs4.ethg$o[17].channel  busy:vector  ETV
attr interpolationmode  sample-hold
attr source  channelBusy
vector 98  TuCsNet.switchLs4.ethg$o[18].channel  busy:vector  ETV
attr interpolationmode  sample-hold
attr source  channelBusy
vector 99  TuCsNet.switchLs4.ethg$o[19].channel  busy:vector  ETV
attr interpolationmode  sample-hold
attr source  channelBusy
vector 100  TuCsNet.switchLs4.ethg$o[20].channel  busy:vector  ETV
attr interpolationmode  sample-hold
attr source  channelBusy
vector 101  TuCsNet.switchLs4.ethg$o[21].channel  busy:vector  ETV
attr interpolationmode  sample-hold
attr source  channelBusy
vector 102  TuCsNet.switchLs4.ethg$o[22].channel  busy:vector  ETV
attr interpolationmode  sample-hold
attr source  channelBusy
vector 103  TuCsNet.switchLs4.ethg$o[23].channel  busy:vector  ETV
attr interpolationmode  sample-hold
attr source  channelBusy
vector 104  TuCsNet.switchLs4.ethg$o[24].channel  busy:vector  ETV
attr interpolationmode  sample-hold